LAMMPS data file via write_data, version 15 Jun 2023, timestep = 10, units = lj

6330 atoms
7 atom types
8438 bonds
3 bond types
10531 angles
2 angle types

0 51.031036 xlo xhi
0 51.031036 ylo yhi
-0.5 12.5 zlo zhi

Masses

1 1
2 1
3 1
4 1
5 1
6 1
7 1

Bond Coeffs # harmonic

1 100 3
2 6 0.5
3 6 0.5

Angle Coeffs # harmonic

1 1 180
2 1 120

Atoms # molecular

670 3388 5 0.5086564993479382 0.9896466614429221 3.428410728145595 0 0 0
1562 3388 5 0.7267792302501732 0.4007291734787039 3.2703109409021014 1 0 0
600 3388 5 0.8278918714036987 0.7298685426646989 2.936505215104899 0 0 0
3049 1525 1 0.6640311141639104 1.5863557005039706 3.647549067724959 1 0 0
579 290 1 0.17564109219627164 1.1978514345392555 3.70301899076039 0 0 0
599 300 1 2.844794319157742 2.9528334436750225 2.142365243329211 0 0 0
2538 3841 5 3.133551359448443 1.2443255642600186 1.516102636500307 0 0 0
3466 3841 5 3.434646518786558 1.4005168237258505 1.1040453704064268 0 1 0
4478 3841 5 3.6245643469956264 0.7722406940984676 1.6311402938665405 0 1 0
6317 3159 1 4.08268405593873 3.061764171120602 2.9292512245208955 0 0 0
4892 3553 6 7.240975234551938 0.519126045283065 3.4125067855570346 1 1 0
1076 3553 6 6.856490768586006 1.1967619446179347 3.564862408518423 0 0 0
5318 3553 6 7.458806807694482 1.1216606214295382 3.7490829021862 1 0 0
1165 583 1 12.145571146077529 2.9147396873747318 3.7413321850486483 0 0 0
5539 2770 1 16.131749893969 1.4741122040896426 4.047821285176933 1 0 0
1166 3578 6 15.149653445648228 2.5367821609010632 3.7605549349553096 0 0 0
2390 3578 6 15.436686756989811 2.880646534526074 3.908978360437755 0 0 0
6067 3034 1 19.74994318973275 2.798672838060258 3.2494987307518244 1 1 0
6320 3160 2 18.034383281217114 2.057865073395691 1.1218895047566932 0 0 0
2007 1004 1 21.0979918048001 2.7277672547929 3.11015775153444 0 0 0
1587 794 1 20.51815768987658 2.9125559440998354 3.3289911115556836 0 0 0
2229 1115 1 25.078721815288013 1.0762266305884085 2.8280425299079077 -1 1 0
2323 1162 1 24.989092516220964 1.4348424688203167 3.1081475732595165 0 0 0
6109 3055 1 27.10095681859946 0.8210581237897248 3.1744581422160536 1 1 0
5145 2573 1 24.224751605303787 2.6457565347843106 3.6542017631043975 0 0 0
3428 3656 5 29.39845644438584 0.4514274430431347 3.691810141390058 0 1 0
4222 3656 5 29.36472698741418 1.2997748323303848 3.292947094700011 0 0 0
1486 3656 5 28.918559708530147 0.9808545014760149 3.6645788466883085 -1 1 0
4267 2134 1 28.659211883056187 0.31934512998304604 2.3318460327569284 1 1 0
431 216 1 27.24396036199152 1.038597593664169 2.891018870379425 -1 1 0
3513 1757 1 27.43429010285768 1.561624384805457 2.8518408022219424 1 0 0
2683 1342 1 28.31265107085694 0.2490219614426512 1.4447047642842983 0 1 0
3116 3904 3 27.36686131549898 0.5773754324977236 3.822469740811197 0 0 0
2881 1441 1 33.13424627924172 1.3660492494505485 3.6285009810948576 0 1 0
2882 3879 5 35.65711775337945 3.1166550549366443 3.6428511063295 0 1 0
4120 3394 7 40.71390935360346 1.7718398364858903 3.5498781771526606 0 0 0
3662 3703 2 40.297813561697076 3.4104712004033364 3.589554625571921 0 1 0
618 3394 7 40.78873134285761 2.2575578701448555 3.4848288565026215 -1 0 0
3362 3703 5 40.33160523894962 3.1047502113216057 3.445657280559944 -1 0 0
5002 3703 5 40.35728757255566 2.976096992562054 3.815375604254016 0 -1 0
2287 1144 1 37.62499059284242 1.7899419889435426 2.9897908343128714 0 0 0
5435 2718 1 38.487815182363725 2.3227677652618293 2.9151890734887322 0 0 0
6260 3130 2 38.05605499461625 1.3958011557739474 3.5196326185325684 0 0 0
4310 3394 7 41.05922315765099 1.826647563504815 3.318713415217374 0 0 0
3986 3394 2 41.22277193467413 1.719519649871779 3.108499225078017 0 1 0
4462 3901 5 42.0946927226691 3.0356449529700673 3.5698469111827524 0 1 0
3950 3901 5 42.50817849510424 2.6842525028839037 3.1509654211829172 0 0 0
3335 1668 1 43.50452553285606 1.1879174041353766 3.91414691351268 0 1 0
2778 3462 6 43.629254221897305 0.09318773678709014 3.898094484948528 0 0 0
3086 3901 5 42.10572180780807 3.0170070637057678 3.5041934755431616 -1 0 0
5001 2501 1 41.99550912191164 0.6446805343039358 3.2300176751159486 0 -1 0
5196 3462 6 42.854741090552224 0.06097070054450015 3.4435372641207596 0 1 0
1000 3462 6 43.04341737856764 0.766002846246199 3.4903331673571447 0 1 0
816 3462 6 42.81082796733396 0.40384297909980044 3.720209121547689 0 0 0
6287 3144 1 41.718689160983246 1.766827062408696 3.4711679410080873 0 0 0
3949 1975 1 45.04735834500648 2.6518317265067513 1.5435991265746487 0 0 0
2729 1365 1 50.37005624265142 0.6287873934890312 2.9434316097819355 -1 1 0
5923 2962 1 50.136971703041674 1.3529004872439772 2.4857309971413812 0 1 0
1323 662 1 2.9538137231386776 3.513653474513423 2.737514390708415 0 0 0
825 413 1 0.44086875582822754 3.8221895033661606 2.7033714969015317 0 0 0
736 3235 5 2.754521589934657 6.3730020966149485 3.7804980139789217 0 1 0
1324 3235 5 3.3652130897940804 6.343900497233381 3.28527733976014 0 0 0
228 3235 5 3.131485764059605 6.599680444470691 2.9999847249646625 0 1 0
5278 3602 5 3.451685506662705 6.993822326305961 3.9505614123804453 1 0 0
1261 631 1 1.5747780738515111 4.8872056831625725 3.8633366309238157 0 0 0
195 98 1 3.8297036204364474 3.585502756390363 2.622604119147095 0 1 0
5277 2639 1 5.6364586030506 4.982105907417657 3.719925646427853 1 0 0
1075 538 1 5.614409995347113 3.874464126769827 3.7040430973914615 0 0 0
3465 1733 1 4.8917060285960785 3.910338350793137 2.2441977077089006 0 1 0
2249 1125 1 5.209707643055041 4.247176426918194 3.1363652706160425 0 1 0
6084 3912 5 6.372298762354589 5.190482872960188 3.2187731780827615 2 0 0
5356 3912 5 6.616499633439494 5.164092502217381 2.6755315109227147 1 0 0
1923 962 1 6.576369890985067 6.332663736832803 3.57525543117129 0 1 0
3200 3912 5 6.669196416173577 4.883586594439123 3.1640492603234223 0 0 0
4256 3695 3 9.985048207055398 6.363874915876 3.174230475407602 1 -1 0
1678 3695 3 10.149570349139063 5.912074609217668 3.3995965435710045 -1 1 0
5427 2714 1 6.7884412696056255 6.323170334829952 3.7717805325874383 0 1 0
6281 3141 1 10.932149536058182 5.8522860376702965 0.8946262924074448 0 0 0
247 124 1 13.610258729041503 5.9161385990657935 3.3592742536287745 0 1 0
1337 669 1 13.46950703889915 6.687515719126327 3.3228516273627102 0 0 0
1107 554 1 14.199340375568326 6.014872610687375 3.0764567256418736 0 1 0
2130 3390 6 13.900044834670862 6.711143460494282 3.051916496424212 0 0 0
4388 3390 6 14.173227499357468 6.003689521159362 3.338871632346051 0 0 0
3708 3390 6 14.29872347696622 6.362994633844118 2.7711861378447367 0 0 0
5299 2650 1 15.285532416803205 3.676965408549823 2.8437556878648738 1 0 0
1489 745 1 14.138980697593455 6.182041770080464 3.0645988142587743 0 1 0
157 79 1 16.31368549414104 6.076774806776376 3.454152504425668 0 1 0
606 3390 6 13.97142033641768 6.366039055466366 3.6546700345985528 0 0 0
1535 768 1 16.3116878049511 6.1857086779340875 3.3008032767462265 0 0 0
6282 3141 2 13.589153553607725 5.340847263290111 1.8812940617999443 0 0 0
1659 830 1 18.592116710019287 6.211404319032644 2.246231854142562 0 1 0
1588 3680 5 20.06567070346655 5.894544613711035 3.9116079923681495 0 0 0
2898 3680 5 20.111992179978596 5.644672031891094 3.3604748521656984 0 1 0
5703 2852 1 18.084667432948997 6.5420581848309745 1.995126308698904 1 1 0
6319 3160 1 17.845428053156983 5.171040600759595 1.2054884764531475 0 0 0
4547 2274 1 20.98538004010055 3.5127747597351995 2.938505374473445 0 1 0
1234 3596 5 27.55956816776238 5.8883783319087595 1.5740008158610137 0 1 0
3326 3596 5 27.992872075502348 6.257738817817148 1.129958991302797 0 0 0
3030 3596 5 28.109762055931416 5.797504178488929 1.1668917650243156 0 0 0
2049 1025 1 29.832052490901386 6.227128658489939 2.586766408242942 0 0 0
6258 3129 2 30.32904048096193 5.044719188981712 4.141141310607618 0 0 0
4991 2496 1 35.40402440337672 3.8793967974266383 3.54013877345552 0 2 0
4992 3444 6 35.41212753840072 6.445973993949706 1.8254208278327486 0 2 0
5254 3444 6 35.50750308859426 6.515115024766593 2.481277531242799 0 0 0
770 3444 6 35.85562316472399 6.6258893140861 2.2441483894522074 -1 0 0
3434 3879 5 36.22347053850044 3.7420557363627216 3.934035151424289 0 1 0
2912 3879 5 35.66425225493891 3.4629066085924274 3.5005461488981124 0 1 0
3612 3703 5 40.38058114525847 3.7387072185024213 3.4716732955618284 -1 0 0
5994 3703 7 40.47502703882749 4.14600870173153 3.796869895984795 0 1 0
2500 3703 7 40.751182287816356 3.6968266488604073 3.672347503191432 -1 1 0
3985 1993 1 43.08270000506739 3.6440834463028264 1.571010705426149 0 1 0
1705 853 1 42.90253169401366 4.172042139092789 2.1591977984378192 0 1 0
3085 1543 1 41.29208345957663 5.180639385041789 1.6585518473575553 -1 0 0
4519 2260 1 42.16472397516341 5.641478277262703 1.6215493442750732 0 0 0
3737 1869 1 41.560344843726334 4.754313753775721 1.8909316414236452 0 1 0
3585 1793 1 43.188502536571306 4.412588171496161 3.904225131562406 0 1 0
1369 685 1 41.39812199947402 6.206177926169878 1.455260885549955 0 0 0
4367 2184 1 43.87344382175101 5.856513604286718 3.2520227878673778 0 0 0
183 92 1 43.47879566411467 5.596351019740982 3.9452930387953207 -1 0 0
4591 2296 1 42.981076458115155 4.067249058697634 4.000959107954811 0 0 0
409 205 1 42.95267712497943 6.16534872392122 3.7128800501723287 -1 2 0
3611 1806 1 42.7106525360767 5.63466515620799 4.14960583594646 -1 0 0
546 3367 5 43.490149236754206 6.815096851926135 3.910366430678617 -1 0 0
1639 820 1 44.40511095910882 5.698984144915372 3.4056029941930612 -1 0 0
1640 3360 3 47.35239377586164 5.487147068193019 3.7613561102931863 -1 0 0
3879 1940 1 45.18396123972072 4.299637884885696 2.749330194904616 -1 1 0
3083 1542 1 46.44022857400209 4.477998086470618 3.4253647200763173 -1 0 0
526 3360 3 47.791166127343274 5.558641088861996 3.620331411907842 -1 0 0
826 3467 5 48.59061461267685 4.554054241732514 3.429092606627496 -1 0 0
4200 3467 5 48.45820669327596 4.106560121520787 3.732505741982946 -1 1 0
5924 4020 2 50.19579848240549 4.0103272404681505 3.9033514659071042 0 1 0
4617 2309 1 50.27230250114154 6.808172376024905 3.8741900880731364 0 0 0
3489 1745 1 0.4697738780765156 10.067199332861337 3.715579514424821 -1 1 0
4537 2269 1 3.214474910978783 9.898527027004198 1.670523595889578 1 0 0
5387 2694 1 1.4786616524775296 8.851162170098524 3.9399322932213368 0 0 0
4254 3907 5 1.2233902342149339 9.854123770038209 3.969201768782676 1 0 0
1262 3602 5 3.390228492955845 7.230352261049888 3.3017206921440923 0 0 0
5251 2626 1 4.264929932189101 7.3639363758047525 2.302189896941563 1 0 0
3545 1773 1 4.132221266881573 8.037474950142952 1.916750458343358 1 0 0
3961 1981 1 3.702880936866745 9.531406599127353 2.5591291992144787 0 0 0
1591 796 1 6.649552998196176 7.861946002341345 3.842251497496983 0 1 0
1128 3182 6 6.238091407172537 8.370605389987618 2.380254247279662 1 1 0
3962 3182 6 6.3041139976614 8.14502529531518 2.1760736485976775 0 0 0
118 3182 6 6.608702072579449 8.34330817661728 2.827781220505439 0 1 0
2974 3182 6 6.644623079865213 8.604225957933178 2.403926898097483 0 1 0
4146 3895 5 9.606040762465794 9.475094284969744 3.497830557170705 1 1 0
3046 3895 5 9.75420039032963 9.834949102632264 3.6919189463828994 0 0 0
3283 1642 1 7.609691183964564 8.458862467947064 1.2535892659090435 0 0 0
4255 2128 1 8.471016192886355 7.964204095485379 1.040254114815316 1 -1 0
5893 2947 1 9.796169720763558 10.001681425545621 4.01043047939745 0 0 0
3932 3895 5 9.134434966186491 9.903269805998791 3.9091422125273256 1 1 0
2255 1128 1 9.724475294112187 8.214168623002747 3.0953351803128633 0 0 0
269 135 1 9.696238698238277 9.022385360203868 2.458413497376022 -1 0 0
4785 2393 1 6.8258339324321975 9.429590760549193 3.6842432447829303 0 0 0
231 116 1 7.4485678946736895 9.286534806312073 3.176822086536163 0 1 0
4391 2196 1 13.2731115824231 7.533430620663593 3.8193633552817103 0 0 0
3707 1854 1 16.45028762926508 8.619992668711026 2.4652900064825864 0 0 0
4330 3668 6 15.98662644145788 9.515155934488897 2.725985544460633 1 0 0
5704 3668 6 16.811871048510273 9.198535644264307 2.5728985694604405 1 1 0
3529 1765 1 15.923331267906152 7.469851377678419 3.817511737220494 0 0 0
1108 3422 3 15.285930721204915 8.50610208225162 1.8883720856583945 0 1 0
700 3422 3 15.191497058789535 8.76954563358575 2.743584197811627 0 0 0
5580 3668 6 16.232545634462472 9.652848369553954 2.50990408099124 1 0 0
4546 3322 3 16.339246505944566 9.31753949486344 3.232838850703349 0 0 0
438 3322 3 16.137759186298307 8.864413995449537 2.4414734457073877 0 0 0
1536 3668 6 16.183423942592842 9.128238424294999 3.0863102333022465 0 0 0
1199 600 1 17.045133711809402 9.424865277021233 2.8987257614308897 0 0 0
4329 2165 1 13.602095941789845 7.651510124815576 3.4425518885893562 1 0 0
681 341 1 16.290254110998944 9.954815289031583 3.353209159292469 0 1 0
1807 904 1 17.5637636184909 8.778076861224015 3.150068702745814 -1 0 0
6269 3135 1 20.45761028106725 9.409638085949334 2.031075621962614 0 0 0
2897 1449 1 22.003574516330627 7.814804489882404 2.515739252221301 0 1 0
4969 2485 1 21.477293258634983 8.032238716813977 3.9490247403459118 0 1 0
3325 1663 1 26.099498882951657 7.6772249660170555 3.140438096318847 0 0 0
1469 735 1 26.117610013843937 7.389709139716924 3.6862451515782126 0 0 0
1426 3257 6 25.865108380083406 10.160259097288215 1.8692868402410419 0 0 0
280 3257 6 26.402203406498693 10.034643376339073 1.3068578381098008 0 0 0
4563 2282 1 27.072154840683925 6.972610232014366 2.8887062200813713 0 0 0
1667 834 1 26.704900083411005 7.566743443509968 2.762108839116779 0 0 0
3821 1911 1 24.572989251857454 7.694402736023458 3.3438371227063968 0 0 0
4463 2232 1 24.165215532222554 8.113912640063141 3.261617972728481 0 0 0
1668 3679 5 25.39004858464856 9.954586346598244 3.755732901235796 0 0 0
3822 3816 5 27.21964985702913 9.085061288983512 2.5572129123444767 0 0 0
4464 3816 5 26.87179981976985 9.116185692634682 2.6409535727529403 0 0 0
6270 3135 2 23.000282725495293 9.812205946820235 2.899696369003707 0 0 0
2364 3816 5 27.4619986647955 9.526610909225521 2.1051247718733586 0 0 0
3029 1515 1 30.1819442699745 6.845162820077254 2.86259196067521 0 0 0
279 140 1 28.87393990992862 9.694769585801533 3.0887310471881824 0 0 0
1967 984 1 29.310236139650062 9.31575257373064 3.574529034280493 0 1 0
3951 1976 1 30.049810332661973 9.348939531473649 3.5090539239885175 -1 0 0
3831 1916 1 30.153832299181705 9.50251695269045 3.8249599413927067 0 0 0
1920 3662 5 27.946724709286613 8.845058079962897 3.8129257389518365 0 0 0
2991 1496 1 30.87423584658461 7.245329126036932 2.880601241819153 0 1 0
2992 3892 6 33.172221287231395 8.808440189269293 3.7967519055029038 0 1 0
6122 3892 6 33.297349355633656 9.341514188463604 3.6934176419536704 0 0 0
3952 3892 6 32.984221397004895 9.3075409009719 3.9753042419164837 -1 0 0
6325 3163 1 33.274383972397025 9.283586940755262 2.8245324624769284 0 0 0
4192 3444 6 35.26123150632736 7.054858196830369 2.370800885418523 0 1 0
4929 2465 1 37.27345321811658 8.983762456220282 3.679819868557168 0 1 0
4191 2096 1 36.35932617454228 9.708350989040616 1.9406628454420158 0 1 0
5633 2817 1 37.93759825299764 8.589578249408989 3.6205812888636975 0 1 0
769 385 1 37.61514439071566 8.78392631050569 3.546319137179383 -1 0 0
4955 2478 1 37.67715293933804 9.26872796026196 3.9139582569263975 0 1 0
5634 4010 3 40.83120175640295 9.192221926603752 3.990325396432657 0 1 0
4050 3407 6 39.25973301267162 7.985627512334913 3.797753977350455 0 0 0
2057 1029 1 40.80586263739972 7.077998817991609 3.16435738010144 -1 0 0
1005 503 1 39.30138909540094 8.826883965074055 1.394028349184608 0 0 0
654 3407 6 39.26700137107136 7.854213998089378 3.609764204094345 -1 1 0
1962 3407 6 39.72166398205274 7.690393989354303 3.3768568218867197 0 1 0
664 3410 3 39.59097672020118 9.77810790158369 2.8835048631792812 -1 1 0
1006 3535 5 41.48963741417352 7.693714111960283 2.7064359064909196 0 0 0
1370 3310 5 42.021947688055576 8.937030593781973 2.532594805147797 0 0 0
532 3310 3 41.50977204012467 8.150959118639657 3.4209322154080413 -1 0 0
1961 981 1 41.585734886582195 9.752537486794507 2.219055462974414 0 1 0
3468 3310 3 40.927353565110614 8.746172375056924 3.0156793891584983 0 0 0
410 3310 7 41.43635771775914 8.606327927579967 3.300993456624078 -1 2 0
3858 3310 5 42.154862651653126 8.666785397301894 3.065604315972871 1 1 0
4368 3535 5 41.46688997162706 7.465265839543586 2.928526722144394 0 0 0
5242 3535 5 41.879802989821954 7.614838079285425 2.60140448235252 0 1 0
1078 3214 6 41.59906693444682 7.971136212282409 3.243240351548447 -1 0 0
2692 3214 6 42.28317925307079 8.410429601134217 3.1970322293928217 0 1 0
184 3214 6 42.15606441647499 8.120661476466829 3.0884775737879138 -1 0 0
6092 3214 6 42.29210739824873 8.551950022787098 2.7172141279258875 0 0 0
4520 3310 2 41.814267428042136 8.503803796863469 2.7500887647800503 0 0 0
5892 3310 5 41.98562345113875 8.75405875213876 3.570000565861391 1 0 0
6264 3132 2 41.677953857731026 9.713236197654076 2.4844255223848033 0 0 0
6091 3046 1 44.966696564514365 9.939179730116479 2.175795969356799 0 0 0
3110 3801 6 0.5227792935633641 11.563899454012576 2.5776211078887954 0 0 0
5388 3801 6 0.4532901108921165 11.36347480316291 2.4138638958855028 0 0 0
2274 3801 6 0.7360385271670067 11.6313040330433 2.0371139310524913 0 0 0
4804 3801 6 0.4470729377273899 12.193988936306994 2.717822986097112 1 0 0
6305 3153 1 1.3813097010208202 13.734441663302974 1.0436142203868357 0 0 0
2273 1137 1 3.5933004176134786 10.553115933319736 2.189936067651351 0 0 0
1592 3681 4 5.343739856213468 10.306950894165729 2.634861557721747 0 1 0
5533 2767 1 5.935247896354138 11.21255572730107 3.5434639808829735 0 1 0
4320 3681 7 5.693545271396502 10.771056181913114 3.1987306202174484 0 0 0
3284 3681 7 5.599605901023564 10.422165822652032 2.3928630126855235 0 0 0
4777 2389 1 3.6894186293799605 10.39111067608203 1.4886981991124335 1 0 0
3546 3681 7 5.592507661586552 10.545436645280095 2.6098438378084277 1 0 0
4778 3803 6 6.713744964724863 10.80137349323833 1.22918410483014 1 0 0
5716 3803 6 6.745048971864973 11.493838022046036 0.9702105982908412 0 0 0
5036 3681 7 5.271897639443644 10.69884775937125 3.195274171765965 1 -1 0
3614 3681 7 5.483471348844773 10.846881203603818 2.851426823907755 1 0 0
2280 3803 6 6.493108123955699 10.826650896346838 1.6530376975245549 0 0 0
2857 1429 1 5.683157981131467 12.207938491624 3.7666639722726236 0 0 0
4021 2011 1 4.105655815017338 11.429457446257787 3.6504937634909376 1 0 0
2279 1140 1 4.534739548342341 11.708424456216672 3.658846940017749 0 0 0
2973 1487 1 7.044655056636226 11.592301113529695 2.559795755539293 0 1 0
3764 3803 6 6.752762121413185 11.101387126313668 1.3648558887992988 0 -1 0
5534 4014 3 7.726315975992147 11.229932282060453 1.2966399583177626 0 1 0
5894 4014 3 8.450412269359644 11.605035811156988 1.7628032490649115 0 0 0
3045 1523 1 8.383523497547548 12.262005756750924 2.7577281763156263 0 0 0
3003 1502 1 8.728064038067988 12.714985635058383 3.348482081597938 0 0 0
2631 1316 1 10.03781094763973 12.341899804201262 2.5845231556349924 0 0 0
232 3237 6 8.910631131625308 11.986684829365721 3.9331219361083094 0 1 0
2858 3237 6 8.600715344769407 11.834322713074876 3.0355414601946444 0 0 0
5712 3237 6 8.96604115855618 12.265796473574303 3.4690826367230807 1 0 0
5035 2518 1 7.150276792928692 12.971086246635522 2.6753477031731845 1 -1 0
397 199 1 7.9420805556312954 13.338331614596605 3.0419337264266018 0 0 0
912 3237 6 9.201407576104499 12.050648795557763 3.684535916535458 0 0 0
1855 928 1 10.586705114750563 12.31044905168854 2.0974520376216135 0 0 0
2792 3252 6 11.293313833003795 12.057391761816268 2.2733548906746113 0 0 0
270 3252 6 10.817142368219283 11.755945271375197 2.602823608824192 -1 0 0
5158 3252 6 11.115075831747266 12.026404574449998 2.5590928681571814 0 1 0
1190 3252 6 11.113908203173883 12.286603486170293 2.79431665973638 -1 0 0
1027 514 1 11.384060655985314 11.279098726898809 3.7223873820478737 1 0 0
721 361 1 11.816286753608045 11.890590846935657 3.425099283940578 0 1 0
437 219 1 13.983240540209172 10.508732011773205 1.0722240665700176 0 0 0
5579 2790 1 17.388497615815634 12.237195618106155 2.72224196719867 1 0 0
4287 2144 1 17.63142823633826 13.185648962114477 2.5307072291826795 0 0 0
3092 3833 6 20.256707634522797 13.330894728492202 2.1786030745933123 0 0 0
3204 3833 6 20.08546790909888 12.894955856135464 2.143784531361656 0 0 0
2484 3833 6 19.93444267181756 12.938010308550822 2.7027173374110527 0 0 0
1200 3487 5 19.560689966062277 10.884125627321511 2.1920301152096786 0 0 0
878 3487 5 20.188667306417074 10.96401833409558 2.362890614119757 0 0 0
3016 3487 5 20.07015166181182 11.446438420265554 2.3437146414610877 -1 -1 0
3785 1893 1 18.402424164739475 11.495552767201213 2.3331046036875356 1 0 0
2502 3386 6 19.759291255522715 13.342609372551578 3.350939515210257 0 0 0
596 3386 6 20.17990492054904 13.521910901121862 3.0049356668812 -1 0 0
2140 3197 5 19.379938966787122 11.239768406214557 3.968643906229792 0 1 0
2909 1455 1 17.48760337910187 13.397762825555523 3.906546595714737 0 0 0
3338 3833 6 20.522257883392143 13.07031634143504 2.221463046189116 0 0 0
3337 1669 1 23.299220809268377 12.13427884056261 1.6682033121778224 0 0 0
2551 1276 1 22.04459932024532 10.676561298471404 3.680245112112327 0 0 0
3397 1699 1 22.477614489695416 11.136184331376505 3.483427233450974 0 0 0
6224 3883 6 21.42230276919831 12.308542681457968 3.8115030641545706 0 0 0
2932 3883 6 22.086111713007938 12.255878252862441 3.601538946267514 0 0 0
2922 3883 6 22.092800288498314 12.052272939423908 3.979899237420982 0 1 0
2111 1056 1 21.640558586723458 10.32125546694779 3.8113901938314205 0 1 0
3703 1852 1 21.77616225724879 10.636921233092142 3.73632146898579 0 0 0
3692 3883 6 22.272920600047907 12.473883926159527 3.9182814811091267 0 1 0
2206 3791 2 23.47035019612319 12.760907080769659 3.4861624632435118 0 1 0
3015 1508 1 22.194826250302057 13.342939798164304 2.5718619783233714 -1 -1 0
1583 792 1 23.82527825280599 11.760572106715461 1.9991764044251772 0 0 0
2810 3257 6 26.35728092319927 10.354601646639821 1.870482137728173 0 0 0
2092 3257 6 25.71555013808611 10.551912900601737 1.671865080477533 0 1 0
2361 1181 1 26.63637525773808 11.811669362100316 1.7713494813991755 0 0 0
2363 1182 1 26.601749120164243 12.456164142019341 2.1166686588416845 0 0 0
5451 2726 1 26.644262853933697 12.600426564911663 1.9236408245547019 1 1 0
5519 2760 1 27.126627312073335 11.840532959321884 2.099891776614863 0 0 0
2809 1405 1 27.153256668447494 13.200214470864873 2.01473945159035 0 0 0
5143 2572 1 30.379310206068343 13.088301478088054 3.9705536916232926 0 0 0
1972 3756 6 29.259775890684534 12.371453055317447 3.8550690105899568 0 1 0
5452 3756 6 28.957343350168347 12.262443166534927 3.8088134780852756 1 1 0
3998 3970 3 33.33327313892368 12.928998306239627 3.7891802408629633 0 0 0
5626 3970 3 33.21256021282355 13.322931836756457 2.682044052109568 0 1 0
5889 2945 1 31.808623561125433 13.44365524442724 3.913394984768171 0 0 0
5049 2525 1 31.07372285362019 11.488927008998296 4.08694047669451 0 0 0
2326 3813 5 31.324872517101742 10.374659038391083 4.00134885840986 0 0 0
663 332 1 36.915522854846124 10.531016564509498 2.0096494771110254 -1 1 0
6121 3061 1 35.6075277391053 11.233919186747402 3.8102321870076783 0 0 0
5459 2730 1 35.53799519260822 11.791253279558847 3.9079707126328533 0 1 0
1212 3410 3 39.57519037833297 10.741620624473716 3.8554692689927634 -1 1 0
5241 2621 1 40.41184632777002 10.328073141801235 2.3457720161797386 0 1 0
3274 3919 5 41.840161033451366 12.136586682587334 3.258473073606115 -1 0 0
4454 3919 5 41.61212536472273 11.83515260620381 3.6846879394930934 0 0 0
6086 3919 5 42.0412278277359 12.10259170070713 3.549948841832851 1 0 0
1211 606 1 41.175363892535884 13.442276187492949 3.8197229853069015 -1 1 0
4406 3137 6 42.00083484319403 13.125717214086748 2.9228373025295102 0 0 0
4982 3137 6 41.96249472021249 13.347564388099345 3.327032818973213 0 1 0
1658 3403 3 44.0610073826608 12.61506398983393 3.0628156707603287 0 0 0
4405 2203 1 41.82632531485391 10.387384530694142 1.9874591435058107 0 0 0
243 122 1 44.006107049655455 11.51118099565859 2.6544329794166015 -1 1 0
24 3137 6 42.44503023564786 13.47361669174511 3.0008380138626727 0 0 0
3411 1706 1 43.77906557607287 10.220604765270117 4.032010871147305 -1 0 0
644 3403 3 44.04526437230061 12.201473869086954 2.735064393430873 0 0 0
3273 1637 1 44.62064683761946 11.338880210232569 2.338588543917743 -1 0 0
6085 3043 1 44.634967735123354 12.304710334167433 2.477854499477026 1 0 0
2949 1475 1 45.02302018044567 12.322714830552068 2.62723445550576 0 0 0
371 186 1 45.041278123052834 11.505682681145688 2.762369422436 -2 0 0
3735 1868 1 44.485662025715826 11.16836504620756 2.7835508212400284 0 1 0
101 51 1 48.30069631939949 13.259182287909484 3.290629271914893 -1 0 0
5599 2800 1 48.96871656967265 12.987169814942254 3.5279516773800172 0 0 0
4727 2364 1 49.62784178671133 12.590024425831716 3.9105806047289393 0 1 0
1119 560 1 49.149727486927354 12.522416349103034 3.451064911445038 -1 0 0
3232 3915 5 0.8955748028822936 14.278507404102571 3.960455741831952 0 1 0
3231 1616 1 1.941103333454389 16.550061570878842 2.1422272459927734 0 1 0
785 393 1 2.5212717728699685 16.953631277445464 2.4840309047829696 0 0 0
60 3154 3 4.942685643076569 16.18470117286559 2.3768886192692285 0 0 0
572 3154 3 4.203169557186488 16.413835861015396 2.0999827186380204 0 0 0
2195 1098 1 5.9986143692669565 16.689158823689255 3.2688381744111696 -1 1 0
965 483 1 6.126694668967489 16.199769948581498 3.6694804322764916 -1 1 0
2196 3788 3 3.6767014410717773 17.114165294591785 1.4605158789413022 -1 1 0
6306 3153 2 3.884969180035397 15.04678664008792 0.9827485875906852 0 0 0
5715 2858 1 7.361466535056707 14.061582264606779 2.462658207233251 0 0 0
5308 3607 5 7.263208528799253 16.76173389490314 3.8623368340363253 1 -1 0
5157 2579 1 9.309697858982375 14.256750034132352 2.62447371934473 0 1 0
2714 3607 2 7.589033486477256 16.624632457989133 3.899045493538915 0 0 0
2713 1357 1 9.208642436602046 14.44527843125993 2.6438228039299982 0 0 0
1793 897 1 8.940105318130353 14.969257832772584 3.342084788669314 0 0 0
3805 1903 1 9.99612063538869 16.45311345532743 2.2193004577163404 0 0 0
2299 1150 1 7.77415291226209 14.187352708919107 3.5894758504874824 1 0 0
1274 3607 5 7.219578495094343 16.76788798214022 3.216817952610536 -1 0 0
1736 3607 5 7.40532426156613 16.89466877706333 3.442420654409439 0 1 0
722 3430 6 12.214412328082323 14.77873869164614 2.654293967077118 0 1 0
1796 3430 6 12.786414347855999 15.087445972095757 2.9103674144454437 0 1 0
1856 3430 6 12.75422012230145 14.320876370421521 2.5745100500057587 0 0 0
5596 3430 6 12.921945189971561 15.077143551388657 3.136348353430004 1 0 0
1301 651 1 10.428096011713961 16.663765054419688 2.7644601666596893 -1 -1 0
4088 3386 6 19.760048356523285 14.185103721485707 2.95952532617721 0 -1 0
3203 1602 1 19.73245598681413 15.674611960988399 3.1782963673491245 0 0 0
2181 1091 1 20.03229419348298 15.995990141562956 3.049867978746606 0 1 0
3316 3386 6 20.042788506913578 13.847994487796685 3.3154671219516416 1 0 0
3091 1546 1 18.983702024354955 16.039265820810613 2.5064994356341694 0 0 0
2483 1242 1 17.508911942460546 14.40247424025984 3.793215642239136 0 0 0
2399 1200 1 22.714670084998033 13.729419564439638 2.5809597354387153 0 0 0
2931 1466 1 22.539980080340225 14.578970194280044 1.7262357210547605 0 0 0
2657 1329 1 22.90130911030414 14.968352211727243 1.727957265903886 0 0 0
2139 1070 1 20.918524091311216 13.690772833200453 3.083788094104209 0 1 0
6293 3147 1 22.10748628295455 16.23129570320416 2.8376224437445217 0 0 0
6303 3152 1 22.66982411482253 16.639768866324243 3.2533115693984422 0 0 0
4126 3822 5 26.079689406632138 15.319087058245222 3.0296679452058757 0 0 0
2658 3822 5 25.496367740214463 15.787453525953008 2.742019799743192 0 0 0
2400 3822 5 25.106947255292337 15.215091191052577 3.0731386432742984 0 0 0
4549 2275 1 26.14122276319466 14.953374318634966 2.717761870812864 0 0 0
283 142 1 25.716896617212267 14.21893382859747 2.8577664210706186 -1 0 0
6304 3152 2 25.189168754740738 16.557424279671917 1.8114682776161366 0 0 0
1971 986 1 27.627480446325965 14.014667642425177 2.030344668890364 0 1 0
4125 2063 1 28.729213168694734 15.94627483201648 1.9247137101952254 0 0 0
1847 924 1 29.13738600848766 16.183598922875294 1.3385181153983103 0 0 0
4573 2287 1 32.84240447824558 14.67861142543482 3.1040162681472214 0 0 0
2161 1081 1 32.84525865890975 15.28303907194194 2.5798475843520374 0 0 0
5645 2823 1 32.11936169068834 16.434547283860955 2.7447850587399443 0 0 0
5060 3898 7 33.50445302128345 14.376317055491254 4.0312354829693176 0 0 0
5144 3898 5 33.19312379154993 14.210059161281865 3.53828845385531 0 0 0
5928 3898 3 33.19067882867837 15.189960304516521 3.567618031651973 1 0 0
5460 3898 5 33.9104571724309 14.246327415131784 3.690048424961599 0 1 0
3064 3898 5 33.147245365180154 14.577870215622315 3.767548091588278 0 0 0
5394 3898 7 33.34468571169636 14.519608367235167 3.3008821969661484 0 0 0
5625 2813 1 35.91033394321825 14.322543607561403 2.2090564384741773 0 1 0
3997 1999 1 35.87386194160377 13.963110827338337 2.653410862362545 0 0 0
2769 1385 1 37.02050350081337 14.488806378375124 3.0254388389222515 0 0 0
5059 2530 1 36.41324614127728 14.050563567871226 3.1880515520372854 0 0 0
3105 1553 1 35.469064093720505 16.741042881194215 3.841339087565045 0 0 0
788 3450 6 35.651415941068294 16.548177113847554 4.036383298119145 0 0 0
2162 3450 6 35.15208508402464 16.766409669745933 3.801939674344156 0 0 0
244 3137 6 41.86897942419274 13.613685555670134 2.5677070820425127 -1 1 0
1747 874 1 41.35548005147587 13.782920962027651 3.6752511201401825 0 1 0
5837 2919 1 43.40052842731873 15.448586513958912 3.7342639297395968 0 0 0
1715 858 1 46.39633887913898 15.190074088788341 0.9963009469837124 -1 0 0
4470 3707 5 48.65229071143001 16.319594900331154 2.787800447483071 -1 1 0
4740 3707 5 49.06568712646544 16.354425126700036 2.6369176117755395 0 1 0
1716 3707 5 48.761956289780905 16.737353744158842 2.2857689888209687 -1 0 0
164 3204 2 47.9689420218702 15.769211126279645 3.133939342520378 -1 0 0